version 2
run General-0-20170602-12:40:16-9721
attr configname General
attr datetime 20170602-12:40:16
attr experiment General
attr inifile omnetpp.ini
attr iterationvars ""
attr iterationvars2 $repetition=0
attr measurement ""
attr network Network
attr processid 9721
attr repetition 0
attr replication #0
attr resultdir results
attr runnumber 0
attr seedset 0

vector 0  Network.peer0  ""  ETV
vector 1  Network.peer1  ""  ETV
vector 2  Network.peer2  ""  ETV
0	0	0	0
0	0	0	0
0	0	0	0
0	0	0	0
0	0	0	0
0	0	0	0
0	0	0	0
0	0	0	0
0	0	0	0
0	0	0	0
0	2	0.801381685189	0.801381685189
0	7	1.801381685189	0.801381685189
0	16	2.801381685189	0.801381685189
0	24	3.801381685189	3.572093583806
0	31	4.801381685189	4.572093583806
0	37	5.801381685189	5.572093583806
0	46	6.801381685189	6.572093583806
0	54	7.801381685189	7.572093583806
0	62	8.801381685189	8.572093583806
0	69	9.801381685189	9.572093583806
0	77	10.801381685189	10.572093583806
0	85	11.801381685189	11.572093583806
0	93	12.801381685189	12.572093583806
0	102	13.801381685189	13.572093583806
0	112	14.801381685189	14.572093583806
0	120	15.801381685189	15.572093583806
0	127	16.801381685189	16.572093583806
0	135	17.801381685189	17.572093583806
0	145	18.801381685189	18.572093583806
0	154	19.801381685189	19.572093583806
0	621	62.653980363743	62.653980363743
0	625	62.801381685189	22.598859496716
0	626	62.841781685189	0.801381685189
0	637	63.801381685189	23.598859496716
0	645	64.801381685189	24.598859496716
0	653	65.801381685189	25.598859496716
0	665	66.801381685189	26.598859496716
0	677	67.801381685189	27.598859496716
0	687	68.801381685189	28.598859496716
0	696	69.801381685189	29.598859496716
0	705	70.801381685189	30.598859496716
0	717	71.801381685189	31.598859496716
0	729	72.801381685189	32.598859496716
0	741	73.801381685189	33.598859496716
0	754	74.801381685189	34.598859496716
0	765	75.801381685189	35.598859496716
0	775	76.801381685189	36.598859496716
0	786	77.801381685189	37.598859496716
0	800	78.801381685189	38.598859496716
0	813	79.801381685189	39.598859496716
0	823	80.801381685189	40.598859496716
0	832	81.801381685189	41.598859496716
0	1532	125.801381685189	43.648366993911
0	1550	126.801381685189	3.08973431657
0	1570	127.801381685189	4.08973431657
0	1588	128.801381685189	5.08973431657
0	1604	129.801381685189	6.08973431657
0	1619	130.801381685189	7.08973431657
0	1637	131.801381685189	8.08973431657
0	1657	132.801381685189	9.08973431657
0	1675	133.801381685189	10.08973431657
0	1690	134.801381685189	11.08973431657
0	1708	135.801381685189	12.08973431657
0	1728	136.801381685189	13.08973431657
0	1750	137.801381685189	14.08973431657
0	1772	138.801381685189	15.08973431657
0	1792	139.801381685189	16.08973431657
0	1810	140.801381685189	17.08973431657
0	1829	141.801381685189	18.08973431657
0	1851	142.801381685189	19.08973431657
0	1874	143.801381685189	20.08973431657
0	1895	144.801381685189	21.08973431657
0	2506	166.783896780107	166.78389678011
0	2507	166.801381685189	22.163961924761
0	2517	167.044755993583	0.801381685189
0	2532	167.801381685189	23.163961924761
0	2558	168.801381685189	24.163961924761
0	2587	169.801381685189	25.163961924761
0	2616	170.801381685189	26.163961924761
0	2645	171.801381685189	27.163961924761
0	2668	172.801381685189	28.163961924761
0	2692	173.801381685189	29.163961924761
0	2724	174.801381685189	30.163961924761
0	2763	175.801381685189	31.163961924761
0	2801	176.801381685189	32.163961924761
0	2832	177.801381685189	33.163961924761
0	2862	178.801381685189	34.163961924761
0	2894	179.801381685189	35.163961924761
0	2931	180.801381685189	36.163961924761
0	2968	181.801381685189	37.163961924761
0	3002	182.801381685189	38.163961924761
0	3031	183.801381685189	39.163961924761
0	3062	184.801381685189	40.163961924761
0	3096	185.801381685189	41.163961924761
0	4107	208.507411337341	208.50741133734
0	4122	208.801381685189	22.949590274973
0	4137	209.347361355965	0.801381685189
0	4172	209.801381685189	23.949590274973
0	4211	210.801381685189	24.949590274973
0	4246	211.801381685189	25.949590274973
0	4291	212.801381685189	26.949590274973
0	4343	213.801381685189	27.949590274973
0	4404	214.801381685189	28.949590274973
0	4457	215.801381685189	29.949590274973
0	4507	216.801381685189	30.949590274973
0	4560	217.801381685189	31.949590274973
0	4620	218.801381685189	32.949590274973
0	4681	219.801381685189	33.949590274973
0	4740	220.801381685189	34.949590274973
0	4794	221.801381685189	35.949590274973
0	4846	222.801381685189	36.949590274973
0	4900	223.801381685189	37.949590274973
0	4964	224.801381685189	38.949590274973
0	5027	225.801381685189	39.949590274973
0	5081	226.801381685189	40.949590274973
0	5127	227.801381685189	41.949590274973
0	6918	250.801381685189	23.193839220113
0	7014	251.801381685189	3.334048097463
0	7104	252.801381685189	4.334048097463
0	7187	253.801381685189	5.334048097463
0	7257	254.801381685189	6.334048097463
0	7350	255.801381685189	7.334048097463
0	7462	256.801381685189	8.334048097463
0	7583	257.801381685189	9.334048097463
0	7698	258.801381685189	10.334048097463
0	7795	259.801381685189	11.334048097463
0	7890	260.801381685189	12.334048097463
0	8000	261.801381685189	13.334048097463
0	8121	262.801381685189	14.334048097463
0	8235	263.801381685189	15.334048097463
0	8336	264.801381685189	16.334048097463
0	8431	265.801381685189	17.334048097463
0	8538	266.801381685189	18.334048097463
0	8658	267.801381685189	19.334048097463
0	8781	268.801381685189	20.334048097463
0	8888	269.801381685189	21.334048097463
1	0	0	0
1	0	0	0
1	0	0	0
1	0	0	0
1	0	0	0
1	0	0	0
1	0	0	0
1	0	0	0
1	0	0	0
1	0	0	0
1	398	42.488640217684	0.922132872045
1	402	42.717928319067	0.922132872045
1	411	43.717928319067	0.922132872045
1	415	43.94721642045	0.922132872045
1	424	44.94721642045	0.922132872045
1	427	45.176504521833	0.922132872045
1	437	46.176504521833	0.922132872045
1	439	46.405792623216	0.922132872045
1	448	47.405792623216	0.922132872045
1	451	47.635080724599	0.922132872045
1	460	48.635080724599	0.922132872045
1	464	48.864368825982	0.922132872045
1	473	49.864368825982	0.922132872045
1	478	50.093656927365	0.922132872045
1	488	51.093656927365	0.922132872045
1	491	51.322945028748	0.922132872045
1	501	52.322945028748	0.922132872045
1	503	52.552233130131	0.922132872045
1	514	53.552233130131	0.922132872045
1	517	53.781521231514	0.922132872045
1	528	54.781521231514	0.922132872045
1	532	55.010809332897	0.922132872045
1	543	56.010809332897	0.922132872045
1	546	56.24009743428	0.922132872045
1	557	57.24009743428	0.922132872045
1	559	57.469385535663	0.922132872045
1	569	58.469385535663	0.922132872045
1	572	58.698673637046	0.922132872045
1	582	59.698673637046	0.922132872045
1	587	59.927961738429	0.922132872045
1	597	60.927961738429	0.922132872045
1	602	61.157249839812	0.922132872045
1	858	83.576113235788	83.576113235788
1	865	84.075147563323	0.922132872045
1	867	84.284435664706	0.922132872045
1	869	84.304435664706	0.922132872045
1	873	84.513723766089	0.922132872045
1	883	85.304435664706	0.922132872045
1	885	85.513723766089	0.922132872045
1	887	85.533723766089	0.922132872045
1	891	85.743011867472	0.922132872045
1	901	86.533723766089	0.922132872045
1	904	86.743011867472	0.922132872045
1	906	86.763011867472	0.922132872045
1	909	86.972299968855	0.922132872045
1	920	87.763011867472	0.922132872045
1	923	87.972299968855	0.922132872045
1	925	87.992299968855	0.922132872045
1	930	88.201588070238	0.922132872045
1	939	88.992299968855	0.922132872045
1	944	89.201588070238	0.922132872045
1	946	89.221588070238	0.922132872045
1	949	89.430876171621	0.922132872045
1	960	90.221588070238	0.922132872045
1	963	90.430876171621	0.922132872045
1	965	90.450876171621	0.922132872045
1	968	90.660164273004	0.922132872045
1	979	91.450876171621	0.922132872045
1	981	91.660164273004	0.922132872045
1	983	91.680164273004	0.922132872045
1	989	91.889452374387	0.922132872045
1	998	92.680164273004	0.922132872045
1	1002	92.889452374387	0.922132872045
1	1004	92.909452374387	0.922132872045
1	1010	93.11874047577	0.922132872045
1	1018	93.909452374387	0.922132872045
1	1023	94.11874047577	0.922132872045
1	1025	94.13874047577	0.922132872045
1	1028	94.348028577153	0.922132872045
1	1038	95.13874047577	0.922132872045
1	1042	95.348028577153	0.922132872045
1	1044	95.368028577153	0.922132872045
1	1047	95.577316678536	0.922132872045
1	1057	96.368028577153	0.922132872045
1	1060	96.577316678536	0.922132872045
1	1062	96.597316678536	0.922132872045
1	1067	96.806604779919	0.922132872045
1	1076	97.597316678536	0.922132872045
1	1080	97.806604779919	0.922132872045
1	1082	97.826604779919	0.922132872045
1	1088	98.035892881302	0.922132872045
1	1096	98.826604779919	0.922132872045
1	1100	99.035892881302	0.922132872045
1	1102	99.055892881302	0.922132872045
1	1107	99.265180982685	0.922132872045
1	1117	100.055892881302	0.922132872045
1	1120	100.265180982685	0.922132872045
1	1122	100.285180982685	0.922132872045
1	1126	100.494469084068	0.922132872045
1	1137	101.285180982685	0.922132872045
1	1139	101.494469084068	0.922132872045
1	1141	101.514469084068	0.922132872045
1	1145	101.723757185451	0.922132872045
1	1156	102.514469084068	0.922132872045
1	1159	102.723757185451	0.922132872045
1	1161	102.743757185451	0.922132872045
1	1165	102.953045286834	0.922132872045
1	1922	145.982515094918	145.98251509492
1	1931	146.559552632473	0.922132872045
1	1935	146.768840733856	0.922132872045
1	1936	146.768840733856	0.922132872045
1	1939	146.788840733856	0.922132872045
1	1945	146.978128835239	0.922132872045
1	1947	146.998128835239	0.922132872045
1	1948	146.998128835239	0.922132872045
1	1956	147.207416936622	0.922132872045
1	1965	147.788840733856	0.922132872045
1	1967	147.998128835239	0.922132872045
1	1968	147.998128835239	0.922132872045
1	1973	148.018128835239	0.922132872045
1	1977	148.207416936622	0.922132872045
1	1979	148.227416936622	0.922132872045
1	1980	148.227416936622	0.922132872045
1	1988	148.436705038005	0.922132872045
1	2001	149.018128835239	0.922132872045
1	2003	149.227416936622	0.922132872045
1	2004	149.227416936622	0.922132872045
1	2007	149.247416936622	0.922132872045
1	2011	149.436705038005	0.922132872045
1	2013	149.456705038005	0.922132872045
1	2014	149.456705038005	0.922132872045
1	2022	149.665993139388	0.922132872045
1	2035	150.247416936622	0.922132872045
1	2037	150.456705038005	0.922132872045
1	2038	150.456705038005	0.922132872045
1	2041	150.476705038005	0.922132872045
1	2044	150.665993139388	0.922132872045
1	2046	150.685993139388	0.922132872045
1	2047	150.685993139388	0.922132872045
1	2057	150.895281240771	0.922132872045
1	2068	151.476705038005	0.922132872045
1	2071	151.685993139388	0.922132872045
1	2072	151.685993139388	0.922132872045
1	2075	151.705993139388	0.922132872045
1	2080	151.895281240771	0.922132872045
1	2082	151.915281240771	0.922132872045
1	2083	151.915281240771	0.922132872045
1	2092	152.124569342154	0.922132872045
1	2102	152.705993139388	0.922132872045
1	2107	152.915281240771	0.922132872045
1	2108	152.915281240771	0.922132872045
1	2111	152.935281240771	0.922132872045
1	2116	153.124569342154	0.922132872045
1	2118	153.144569342154	0.922132872045
1	2119	153.144569342154	0.922132872045
1	2125	153.353857443537	0.922132872045
1	2137	153.935281240771	0.922132872045
1	2142	154.144569342154	0.922132872045
1	2143	154.144569342154	0.922132872045
1	2146	154.164569342154	0.922132872045
1	2150	154.353857443537	0.922132872045
1	2152	154.373857443537	0.922132872045
1	2153	154.373857443537	0.922132872045
1	2159	154.58314554492	0.922132872045
1	2173	155.164569342154	0.922132872045
1	2176	155.373857443537	0.922132872045
1	2177	155.373857443537	0.922132872045
1	2180	155.393857443537	0.922132872045
1	2184	155.58314554492	0.922132872045
1	2186	155.60314554492	0.922132872045
1	2187	155.60314554492	0.922132872045
1	2194	155.812433646303	0.922132872045
1	2206	156.393857443537	0.922132872045
1	2209	156.60314554492	0.922132872045
1	2210	156.60314554492	0.922132872045
1	2214	156.62314554492	0.922132872045
1	2218	156.812433646303	0.922132872045
1	2220	156.832433646303	0.922132872045
1	2221	156.832433646303	0.922132872045
1	2230	157.041721747686	0.922132872045
1	2240	157.62314554492	0.922132872045
1	2244	157.832433646303	0.922132872045
1	2245	157.832433646303	0.922132872045
1	2248	157.852433646303	0.922132872045
1	2254	158.041721747686	0.922132872045
1	2256	158.061721747686	0.922132872045
1	2257	158.061721747686	0.922132872045
1	2265	158.271009849069	0.922132872045
1	2273	158.852433646303	0.922132872045
1	2279	159.061721747686	0.922132872045
1	2280	159.061721747686	0.922132872045
1	2283	159.081721747686	0.922132872045
1	2289	159.271009849069	0.922132872045
1	2291	159.291009849069	0.922132872045
1	2292	159.291009849069	0.922132872045
1	2299	159.500297950452	0.922132872045
1	2309	160.081721747686	0.922132872045
1	2314	160.291009849069	0.922132872045
1	2315	160.291009849069	0.922132872045
1	2318	160.311009849069	0.922132872045
1	2322	160.500297950452	0.922132872045
1	2324	160.520297950452	0.922132872045
1	2325	160.520297950452	0.922132872045
1	2333	160.729586051835	0.922132872045
1	2343	161.311009849069	0.922132872045
1	2346	161.520297950452	0.922132872045
1	2347	161.520297950452	0.922132872045
1	2351	161.540297950452	0.922132872045
1	2356	161.729586051835	0.922132872045
1	2359	161.749586051835	0.922132872045
1	2360	161.749586051835	0.922132872045
1	2367	161.958874153218	0.922132872045
1	2377	162.540297950452	0.922132872045
1	2381	162.749586051835	0.922132872045
1	2382	162.749586051835	0.922132872045
1	2385	162.769586051835	0.922132872045
1	2390	162.958874153218	0.922132872045
1	2392	162.978874153218	0.922132872045
1	2393	162.978874153218	0.922132872045
1	2402	163.188162254601	0.922132872045
1	2412	163.769586051835	0.922132872045
1	2414	163.978874153218	0.922132872045
1	2415	163.978874153218	0.922132872045
1	2418	163.998874153218	0.922132872045
1	2425	164.188162254601	0.922132872045
1	2427	164.208162254601	0.922132872045
1	2428	164.208162254601	0.922132872045
1	2437	164.417450355984	0.922132872045
1	2446	164.998874153218	0.922132872045
1	2450	165.208162254601	0.922132872045
1	2451	165.208162254601	0.922132872045
1	2454	165.228162254601	0.922132872045
1	2459	165.417450355984	0.922132872045
1	2461	165.437450355984	0.922132872045
1	2462	165.437450355984	0.922132872045
1	2470	165.646738457367	0.922132872045
1	3168	187.706029652152	187.70602965215
1	3171	187.773924282261	0.922132872045
1	3181	188.146059978112	0.922132872045
1	3185	188.355348079495	0.922132872045
1	3186	188.355348079495	0.922132872045
1	3187	188.355348079495	0.922132872045
1	3191	188.375348079495	0.922132872045
1	3195	188.564636180878	0.922132872045
1	3196	188.564636180878	0.922132872045
1	3197	188.564636180878	0.922132872045
1	3201	188.584636180878	0.922132872045
1	3202	188.584636180878	0.922132872045
1	3203	188.584636180878	0.922132872045
1	3213	188.773924282261	0.922132872045
1	3215	188.793924282261	0.922132872045
1	3216	188.793924282261	0.922132872045
1	3227	189.003212383644	0.922132872045
1	3234	189.375348079495	0.922132872045
1	3238	189.584636180878	0.922132872045
1	3239	189.584636180878	0.922132872045
1	3240	189.584636180878	0.922132872045
1	3244	189.604636180878	0.922132872045
1	3249	189.793924282261	0.922132872045
1	3250	189.793924282261	0.922132872045
1	3251	189.793924282261	0.922132872045
1	3255	189.813924282261	0.922132872045
1	3256	189.813924282261	0.922132872045
1	3257	189.813924282261	0.922132872045
1	3267	190.003212383644	0.922132872045
1	3270	190.023212383644	0.922132872045
1	3271	190.023212383644	0.922132872045
1	3281	190.232500485027	0.922132872045
1	3287	190.604636180878	0.922132872045
1	3292	190.813924282261	0.922132872045
1	3293	190.813924282261	0.922132872045
1	3294	190.813924282261	0.922132872045
1	3299	190.833924282261	0.922132872045
1	3305	191.023212383644	0.922132872045
1	3306	191.023212383644	0.922132872045
1	3307	191.023212383644	0.922132872045
1	3312	191.043212383644	0.922132872045
1	3313	191.043212383644	0.922132872045
1	3314	191.043212383644	0.922132872045
1	3323	191.232500485027	0.922132872045
1	3325	191.252500485027	0.922132872045
1	3326	191.252500485027	0.922132872045
1	3336	191.46178858641	0.922132872045
1	3343	191.833924282261	0.922132872045
1	3348	192.043212383644	0.922132872045
1	3349	192.043212383644	0.922132872045
1	3350	192.043212383644	0.922132872045
1	3355	192.063212383644	0.922132872045
1	3360	192.252500485027	0.922132872045
1	3361	192.252500485027	0.922132872045
1	3362	192.252500485027	0.922132872045
1	3366	192.272500485027	0.922132872045
1	3367	192.272500485027	0.922132872045
1	3368	192.272500485027	0.922132872045
1	3377	192.46178858641	0.922132872045
1	3379	192.48178858641	0.922132872045
1	3380	192.48178858641	0.922132872045
1	3390	192.691076687793	0.922132872045
1	3400	193.063212383644	0.922132872045
1	3404	193.272500485027	0.922132872045
1	3405	193.272500485027	0.922132872045
1	3406	193.272500485027	0.922132872045
1	3410	193.292500485027	0.922132872045
1	3414	193.48178858641	0.922132872045
1	3415	193.48178858641	0.922132872045
1	3416	193.48178858641	0.922132872045
1	3421	193.50178858641	0.922132872045
1	3422	193.50178858641	0.922132872045
1	3423	193.50178858641	0.922132872045
1	3432	193.691076687793	0.922132872045
1	3434	193.711076687793	0.922132872045
1	3435	193.711076687793	0.922132872045
1	3447	193.920364789176	0.922132872045
1	3456	194.292500485027	0.922132872045
1	3458	194.50178858641	0.922132872045
1	3459	194.50178858641	0.922132872045
1	3460	194.50178858641	0.922132872045
1	3464	194.52178858641	0.922132872045
1	3468	194.711076687793	0.922132872045
1	3469	194.711076687793	0.922132872045
1	3470	194.711076687793	0.922132872045
1	3475	194.731076687793	0.922132872045
1	3476	194.731076687793	0.922132872045
1	3477	194.731076687793	0.922132872045
1	3488	194.920364789176	0.922132872045
1	3490	194.940364789176	0.922132872045
1	3491	194.940364789176	0.922132872045
1	3503	195.149652890559	0.922132872045
1	3511	195.52178858641	0.922132872045
1	3514	195.731076687793	0.922132872045
1	3515	195.731076687793	0.922132872045
1	3516	195.731076687793	0.922132872045
1	3520	195.751076687793	0.922132872045
1	3524	195.940364789176	0.922132872045
1	3525	195.940364789176	0.922132872045
1	3526	195.940364789176	0.922132872045
1	3531	195.960364789176	0.922132872045
1	3532	195.960364789176	0.922132872045
1	3533	195.960364789176	0.922132872045
1	3543	196.149652890559	0.922132872045
1	3546	196.169652890559	0.922132872045
1	3547	196.169652890559	0.922132872045
1	3558	196.378940991942	0.922132872045
1	3567	196.751076687793	0.922132872045
1	3569	196.960364789176	0.922132872045
1	3570	196.960364789176	0.922132872045
1	3571	196.960364789176	0.922132872045
1	3576	196.980364789176	0.922132872045
1	3580	197.169652890559	0.922132872045
1	3581	197.169652890559	0.922132872045
1	3582	197.169652890559	0.922132872045
1	3586	197.189652890559	0.922132872045
1	3587	197.189652890559	0.922132872045
1	3588	197.189652890559	0.922132872045
1	3598	197.378940991942	0.922132872045
1	3600	197.398940991942	0.922132872045
1	3601	197.398940991942	0.922132872045
1	3612	197.608229093325	0.922132872045
1	3621	197.980364789176	0.922132872045
1	3626	198.189652890559	0.922132872045
1	3627	198.189652890559	0.922132872045
1	3628	198.189652890559	0.922132872045
1	3632	198.209652890559	0.922132872045
1	3636	198.398940991942	0.922132872045
1	3637	198.398940991942	0.922132872045
1	3638	198.398940991942	0.922132872045
1	3642	198.418940991942	0.922132872045
1	3643	198.418940991942	0.922132872045
1	3644	198.418940991942	0.922132872045
1	3653	198.608229093325	0.922132872045
1	3655	198.628229093325	0.922132872045
1	3656	198.628229093325	0.922132872045
1	3668	198.837517194708	0.922132872045
1	3678	199.209652890559	0.922132872045
1	3682	199.418940991942	0.922132872045
1	3683	199.418940991942	0.922132872045
1	3684	199.418940991942	0.922132872045
1	3688	199.438940991942	0.922132872045
1	3691	199.628229093325	0.922132872045
1	3692	199.628229093325	0.922132872045
1	3693	199.628229093325	0.922132872045
1	3697	199.648229093325	0.922132872045
1	3698	199.648229093325	0.922132872045
1	3699	199.648229093325	0.922132872045
1	3708	199.837517194708	0.922132872045
1	3710	199.857517194708	0.922132872045
1	3711	199.857517194708	0.922132872045
1	3724	200.066805296091	0.922132872045
1	3733	200.438940991942	0.922132872045
1	3736	200.648229093325	0.922132872045
1	3737	200.648229093325	0.922132872045
1	3738	200.648229093325	0.922132872045
1	3742	200.668229093325	0.922132872045
1	3747	200.857517194708	0.922132872045
1	3748	200.857517194708	0.922132872045
1	3749	200.857517194708	0.922132872045
1	3753	200.877517194708	0.922132872045
1	3754	200.877517194708	0.922132872045
1	3755	200.877517194708	0.922132872045
1	3764	201.066805296091	0.922132872045
1	3766	201.086805296091	0.922132872045
1	3767	201.086805296091	0.922132872045
1	3778	201.296093397474	0.922132872045
1	3788	201.668229093325	0.922132872045
1	3792	201.877517194708	0.922132872045
1	3793	201.877517194708	0.922132872045
1	3794	201.877517194708	0.922132872045
1	3798	201.897517194708	0.922132872045
1	3803	202.086805296091	0.922132872045
1	3804	202.086805296091	0.922132872045
1	3805	202.086805296091	0.922132872045
1	3809	202.106805296091	0.922132872045
1	3810	202.106805296091	0.922132872045
1	3811	202.106805296091	0.922132872045
1	3820	202.296093397474	0.922132872045
1	3822	202.316093397474	0.922132872045
1	3823	202.316093397474	0.922132872045
1	3833	202.525381498857	0.922132872045
1	3843	202.897517194708	0.922132872045
1	3847	203.106805296091	0.922132872045
1	3848	203.106805296091	0.922132872045
1	3849	203.106805296091	0.922132872045
1	3853	203.126805296091	0.922132872045
1	3858	203.316093397474	0.922132872045
1	3859	203.316093397474	0.922132872045
1	3860	203.316093397474	0.922132872045
1	3864	203.336093397474	0.922132872045
1	3865	203.336093397474	0.922132872045
1	3866	203.336093397474	0.922132872045
1	3876	203.525381498857	0.922132872045
1	3878	203.545381498857	0.922132872045
1	3879	203.545381498857	0.922132872045
1	3889	203.75466960024	0.922132872045
1	3898	204.126805296091	0.922132872045
1	3903	204.336093397474	0.922132872045
1	3904	204.336093397474	0.922132872045
1	3905	204.336093397474	0.922132872045
1	3909	204.356093397474	0.922132872045
1	3914	204.545381498857	0.922132872045
1	3915	204.545381498857	0.922132872045
1	3916	204.545381498857	0.922132872045
1	3920	204.565381498857	0.922132872045
1	3921	204.565381498857	0.922132872045
1	3922	204.565381498857	0.922132872045
1	3932	204.75466960024	0.922132872045
1	3934	204.77466960024	0.922132872045
1	3935	204.77466960024	0.922132872045
1	3944	204.983957701623	0.922132872045
1	3953	205.356093397474	0.922132872045
1	3958	205.565381498857	0.922132872045
1	3959	205.565381498857	0.922132872045
1	3960	205.565381498857	0.922132872045
1	3964	205.585381498857	0.922132872045
1	3969	205.77466960024	0.922132872045
1	3970	205.77466960024	0.922132872045
1	3971	205.77466960024	0.922132872045
1	3976	205.79466960024	0.922132872045
1	3977	205.79466960024	0.922132872045
1	3978	205.79466960024	0.922132872045
1	3986	205.983957701623	0.922132872045
1	3989	206.003957701623	0.922132872045
1	3990	206.003957701623	0.922132872045
1	4000	206.213245803006	0.922132872045
1	4009	206.585381498857	0.922132872045
1	4014	206.79466960024	0.922132872045
1	4015	206.79466960024	0.922132872045
1	4016	206.79466960024	0.922132872045
1	4020	206.81466960024	0.922132872045
1	4025	207.003957701623	0.922132872045
1	4026	207.003957701623	0.922132872045
1	4027	207.003957701623	0.922132872045
1	4031	207.023957701623	0.922132872045
1	4032	207.023957701623	0.922132872045
1	4033	207.023957701623	0.922132872045
1	4042	207.213245803006	0.922132872045
1	4044	207.233245803006	0.922132872045
1	4045	207.233245803006	0.922132872045
1	4056	207.442533904389	0.922132872045
1	12213	292.216972392901	0.922132872045
1	12215	292.263412899816	0.922132872045
1	12222	292.426260494284	0.922132872045
1	12223	292.426260494284	0.922132872045
1	12224	292.426260494284	0.922132872045
1	12225	292.426260494284	0.922132872045
1	12226	292.426260494284	0.922132872045
1	12233	292.446260494284	0.922132872045
1	12238	292.635548595667	0.922132872045
1	12239	292.635548595667	0.922132872045
1	12240	292.635548595667	0.922132872045
1	12241	292.635548595667	0.922132872045
1	12242	292.635548595667	0.922132872045
1	12243	292.635548595667	0.922132872045
1	12244	292.635548595667	0.922132872045
1	12245	292.635548595667	0.922132872045
1	12246	292.635548595667	0.922132872045
1	12247	292.635548595667	0.922132872045
1	12260	292.655548595667	0.922132872045
1	12261	292.655548595667	0.922132872045
1	12262	292.655548595667	0.922132872045
1	12263	292.655548595667	0.922132872045
1	12264	292.655548595667	0.922132872045
1	12281	292.84483669705	0.922132872045
1	12282	292.84483669705	0.922132872045
1	12283	292.84483669705	0.922132872045
1	12284	292.84483669705	0.922132872045
1	12285	292.84483669705	0.922132872045
1	12286	292.84483669705	0.922132872045
1	12287	292.84483669705	0.922132872045
1	12288	292.84483669705	0.922132872045
1	12289	292.84483669705	0.922132872045
1	12290	292.84483669705	0.922132872045
1	12301	292.86483669705	0.922132872045
1	12302	292.86483669705	0.922132872045
1	12303	292.86483669705	0.922132872045
1	12304	292.86483669705	0.922132872045
1	12305	292.86483669705	0.922132872045
1	12306	292.86483669705	0.922132872045
1	12307	292.86483669705	0.922132872045
1	12308	292.86483669705	0.922132872045
1	12309	292.86483669705	0.922132872045
1	12341	293.054124798433	0.922132872045
1	12342	293.054124798433	0.922132872045
1	12343	293.054124798433	0.922132872045
1	12344	293.054124798433	0.922132872045
1	12350	293.074124798433	0.922132872045
1	12351	293.074124798433	0.922132872045
1	12352	293.074124798433	0.922132872045
1	12353	293.074124798433	0.922132872045
1	12354	293.074124798433	0.922132872045
1	12383	293.263412899816	0.922132872045
1	12386	293.283412899816	0.922132872045
1	12387	293.283412899816	0.922132872045
1	12388	293.283412899816	0.922132872045
1	12406	293.446260494284	0.922132872045
1	12411	293.492701001199	0.922132872045
1	12420	293.655548595667	0.922132872045
1	12421	293.655548595667	0.922132872045
1	12422	293.655548595667	0.922132872045
1	12423	293.655548595667	0.922132872045
1	12424	293.655548595667	0.922132872045
1	12430	293.675548595667	0.922132872045
1	12440	293.86483669705	0.922132872045
1	12441	293.86483669705	0.922132872045
1	12442	293.86483669705	0.922132872045
1	12443	293.86483669705	0.922132872045
1	12444	293.86483669705	0.922132872045
1	12445	293.86483669705	0.922132872045
1	12446	293.86483669705	0.922132872045
1	12447	293.86483669705	0.922132872045
1	12448	293.86483669705	0.922132872045
1	12449	293.86483669705	0.922132872045
1	12460	293.88483669705	0.922132872045
1	12461	293.88483669705	0.922132872045
1	12462	293.88483669705	0.922132872045
1	12463	293.88483669705	0.922132872045
1	12464	293.88483669705	0.922132872045
1	12480	294.074124798433	0.922132872045
1	12481	294.074124798433	0.922132872045
1	12482	294.074124798433	0.922132872045
1	12483	294.074124798433	0.922132872045
1	12484	294.074124798433	0.922132872045
1	12485	294.074124798433	0.922132872045
1	12486	294.074124798433	0.922132872045
1	12487	294.074124798433	0.922132872045
1	12488	294.074124798433	0.922132872045
1	12489	294.074124798433	0.922132872045
1	12501	294.094124798433	0.922132872045
1	12502	294.094124798433	0.922132872045
1	12503	294.094124798433	0.922132872045
1	12504	294.094124798433	0.922132872045
1	12505	294.094124798433	0.922132872045
1	12506	294.094124798433	0.922132872045
1	12507	294.094124798433	0.922132872045
1	12508	294.094124798433	0.922132872045
1	12509	294.094124798433	0.922132872045
1	12542	294.283412899816	0.922132872045
1	12543	294.283412899816	0.922132872045
1	12544	294.283412899816	0.922132872045
1	12545	294.283412899816	0.922132872045
1	12550	294.303412899816	0.922132872045
1	12551	294.303412899816	0.922132872045
1	12552	294.303412899816	0.922132872045
1	12553	294.303412899816	0.922132872045
1	12554	294.303412899816	0.922132872045
1	12583	294.492701001199	0.922132872045
1	12586	294.512701001199	0.922132872045
1	12587	294.512701001199	0.922132872045
1	12588	294.512701001199	0.922132872045
1	12608	294.675548595667	0.922132872045
1	12612	294.721989102582	0.922132872045
1	12626	294.88483669705	0.922132872045
1	12627	294.88483669705	0.922132872045
1	12628	294.88483669705	0.922132872045
1	12629	294.88483669705	0.922132872045
1	12630	294.88483669705	0.922132872045
1	12636	294.90483669705	0.922132872045
1	12648	295.094124798433	0.922132872045
1	12649	295.094124798433	0.922132872045
1	12650	295.094124798433	0.922132872045
1	12651	295.094124798433	0.922132872045
1	12652	295.094124798433	0.922132872045
1	12653	295.094124798433	0.922132872045
1	12654	295.094124798433	0.922132872045
1	12655	295.094124798433	0.922132872045
1	12656	295.094124798433	0.922132872045
1	12657	295.094124798433	0.922132872045
1	12669	295.114124798433	0.922132872045
1	12670	295.114124798433	0.922132872045
1	12671	295.114124798433	0.922132872045
1	12672	295.114124798433	0.922132872045
1	12673	295.114124798433	0.922132872045
1	12690	295.303412899816	0.922132872045
1	12691	295.303412899816	0.922132872045
1	12692	295.303412899816	0.922132872045
1	12693	295.303412899816	0.922132872045
1	12694	295.303412899816	0.922132872045
1	12695	295.303412899816	0.922132872045
1	12696	295.303412899816	0.922132872045
1	12697	295.303412899816	0.922132872045
1	12698	295.303412899816	0.922132872045
1	12699	295.303412899816	0.922132872045
1	12711	295.323412899816	0.922132872045
1	12712	295.323412899816	0.922132872045
1	12713	295.323412899816	0.922132872045
1	12714	295.323412899816	0.922132872045
1	12715	295.323412899816	0.922132872045
1	12716	295.323412899816	0.922132872045
1	12717	295.323412899816	0.922132872045
1	12718	295.323412899816	0.922132872045
1	12719	295.323412899816	0.922132872045
1	12751	295.512701001199	0.922132872045
1	12752	295.512701001199	0.922132872045
1	12753	295.512701001199	0.922132872045
1	12754	295.512701001199	0.922132872045
1	12760	295.532701001199	0.922132872045
1	12761	295.532701001199	0.922132872045
1	12762	295.532701001199	0.922132872045
1	12763	295.532701001199	0.922132872045
1	12764	295.532701001199	0.922132872045