version 2
run General-0-20170627-10:55:25-6656
attr configname General
attr datetime 20170627-10:55:25
attr experiment General
attr inifile omnetpp.ini
attr iterationvars ""
attr iterationvars2 $repetition=0
attr measurement ""
attr network Network
attr processid 6656
attr repetition 0
attr replication #0
attr resultdir results
attr runnumber 0
attr seedset 0

vector 1  Network.peer0  timeDetectionNeg:vector  ETV
attr title  "Time of negative detections, vector"
vector 0  Network.peer0  timeDetectionPos:vector  ETV
attr title  "Time of positive detections, vector"
vector 3  Network.peer1  timeDetectionPos:vector  ETV
attr title  "Time of positive detections, vector"
vector 9  Network.peer3  timeDetectionPos:vector  ETV
attr title  "Time of positive detections, vector"
vector 10  Network.peer3  timeDetectionNeg:vector  ETV
attr title  "Time of negative detections, vector"
vector 13  Network.peer4  timeDetectionNeg:vector  ETV
attr title  "Time of negative detections, vector"
vector 4  Network.peer1  timeDetectionNeg:vector  ETV
attr title  "Time of negative detections, vector"
vector 16  Network.peer5  timeDetectionNeg:vector  ETV
attr title  "Time of negative detections, vector"
0	7167	29.932532154019	16.196698434315
1	3259	13.735833719704	13.735833719704
1	80871	380.264214438751	12.728833505606
1	83697	394.046274169535	13.782059730784
3	11106	46.322424285128	16.288306701784
4	39698	180.936571957208	13.929813396372
4	42427	194.297940750289	13.361368793081
9	15137	62.951539490423	16.295639902391
10	17942	76.470882791865	13.519343301442
10	31348	140.720399715907	13.800778203693
10	34152	154.285658944531	13.565259228624
10	47852	220.771928784506	13.617398642687
10	50645	234.179462943852	13.407534159346
10	64295	300.532472687268	13.126991878513
10	67060	313.881334743764	13.348862056496
10	97558	461.096246588236	13.338439598882
10	100292	474.218976640091	13.122730051855
10	103050	487.371732303004	13.152755662913
13	22768	99.321326100216	12.519443959631
13	25444	112.258181781819	12.936855681603
13	28337	126.086304176994	13.828122395175
13	89217	420.788909531702	13.104946950475
13	92056	434.404845782677	13.615936250975
16	56149	261.011381781794	13.716262379223
16	58925	274.433050489669	13.421668707875
16	72658	340.929511398429	13.462471140235
16	75519	354.566670109625	13.637158711196
