version 2
run General-0-20170530-18:40:54-2991
attr configname General
attr datetime 20170530-18:40:54
attr experiment General
attr inifile omnetpp.ini
attr iterationvars ""
attr iterationvars2 $repetition=0
attr measurement ""
attr network Network
attr processid 2991
attr repetition 0
attr replication #0
attr resultdir results
attr runnumber 0
attr seedset 0

vector 0  Network.peer0  ""  ETV
vector 1  Network.peer0  ""  ETV
vector 2  Network.peer1  ""  ETV
vector 3  Network.peer1  ""  ETV
vector 4  Network.peer2  ""  ETV
vector 5  Network.peer2  ""  ETV
0	0	0	0
1	0	0	0
2	0	0	0
3	0	0	0
4	0	0	0
5	0	0	0
version 2
run General-0-20170530-18:40:54-2992
attr configname General
attr datetime 20170530-18:40:54
attr experiment General
attr inifile omnetpp.ini
attr iterationvars ""
attr iterationvars2 $repetition=0
attr measurement ""
attr network Network
attr processid 2992
attr repetition 0
attr replication #0
attr resultdir results
attr runnumber 0
attr seedset 0

vector 0  Network.peer0  ""  ETV
vector 1  Network.peer0  ""  ETV
vector 2  Network.peer1  ""  ETV
vector 3  Network.peer1  ""  ETV
vector 4  Network.peer2  ""  ETV
vector 5  Network.peer2  ""  ETV
0	0	0	0
0	2	0.801381685189	0.020034542129
0	7	1.801381685189	0.039568220704
0	16	2.801381685189	0.058613557315
0	25	3.801381685189	0.143954920037
0	33	4.801381685189	0.254658386631
0	40	5.801381685189	0.38759426656
0	49	6.801381685189	0.542206749491
0	58	7.801381685189	0.717953920348
0	67	8.801381685189	0.914307411934
0	75	9.801381685189	1.13075206623
0	84	10.801381685189	1.366785604169
0	91	11.801381685189	1.621918303659
0	100	12.801381685189	1.895672685662
0	109	13.801381685189	2.187583208115
0	119	14.801381685189	2.497195967507
1	0	0	0
1	9	2.101555207674	0.019311039717
1	20	3.430668826657	0.038139303441
1	32	4.75978244564	0.056496860571
1	44	6.088896064623	0.074395478773
1	55	7.418009683606	0.09184663152
1	66	8.747123302589	0.108861505449
1	78	10.076236921572	0.125451007529
1	88	11.405350540555	0.141625772057
1	99	12.734464159538	0.157396167472
1	111	14.063577778521	0.172772303002
2	0	0	0
2	18	3.151420973428	0.048053321801
2	28	4.400709074811	0.095405310556
2	38	5.650397176194	0.142083499593
2	50	6.900493277577	0.188114933904
2	61	8.15100553896	0.233526186357
2	71	9.401942283543	0.278343373579
2	81	10.65331200099	0.322592171521
2	92	11.905123350758	0.366297830724
2	103	13.157385165494	0.409485191281
2	113	14.410106454497	0.452178697514
3	0	0	0
3	12	2.252739487612	0.023090646715
3	22	3.581853106595	0.045604027262
3	34	4.910966725578	0.067554573295
3	46	6.240080344561	0.088956355677
3	56	7.569193963544	0.1098230935
3	68	8.898307582527	0.130168162877
3	79	10.22742120151	0.15000460552
3	89	11.556534820493	0.169345137097
3	101	12.885648439476	0.188202155384
3	112	14.214762058459	0.206587748214
4	0	0	0
4	10	2.158260911308	0.023224320248
4	19	3.387549012691	0.045868032489
4	29	4.616837114074	0.067945651924
4	41	5.846125215457	0.089471330873
4	52	7.07541331684	0.110458867849
4	62	8.304701418223	0.1309217164
4	72	9.533989519606	0.150872993738
4	83	10.763277620989	0.170325489142
4	94	11.992565722372	0.189291672161
4	104	13.221853823755	0.207783700604
4	114	14.451141925138	0.225813428336
5	0	0	0
5	1	0.711827398394	0.017795684959
5	6	1.711827398394	0.035146477794
5	15	2.711827398394	0.052063500808
5	24	3.711827398394	0.135329757772
5	30	4.711827398394	0.244009996252
5	39	5.711827398394	0.37497322877
5	48	6.711827398394	0.527662380475
5	57	7.711827398394	0.701534303388
5	65	8.711827398394	0.896059428228
5	73	9.711827398394	1.110721424947
5	82	10.711827398394	1.345016871748
5	90	11.711827398394	1.598454932379
5	98	12.711827398394	1.870557041494
5	108	13.711827398394	2.160856597881
5	116	14.711827398394	2.468898665358
