version 2
run General-0-20170615-11:52:31-3380
attr configname General
attr datetime 20170615-11:52:31
attr experiment General
attr inifile omnetpp.ini
attr iterationvars ""
attr iterationvars2 $repetition=0
attr measurement ""
attr network Network
attr processid 3380
attr repetition 0
attr replication #0
attr resultdir results
attr runnumber 0
attr seedset 0

vector 0  Network.peer0  ""  ETV
vector 1  Network.peer2  ""  ETV
0	2	0.923223131471	0.923223131471
0	7	1.923223131471	0.923223131471
0	13	2.923223131471	0.923223131471
0	21	3.923223131471	0.923223131471
0	30	4.923223131471	4.693935030088
0	37	5.923223131471	5.693935030088
0	45	6.923223131471	6.693935030088
0	52	7.923223131471	7.693935030088
0	61	8.923223131471	8.693935030088
0	70	9.923223131471	9.693935030088
0	78	10.923223131471	10.693935030088
0	86	11.923223131471	11.693935030088
0	212	26.923223131471	15.961200560624
0	248	30.923223131471	4.878884901045
1	110	14.55104848667	3.589025915823
1	119	15.55104848667	4.589025915823
1	125	16.55104848667	5.589025915823
1	133	17.55104848667	6.589025915823
1	141	18.55104848667	7.589025915823
1	149	19.55104848667	8.589025915823
1	157	20.55104848667	9.589025915823
1	165	21.55104848667	10.589025915823
1	172	22.55104848667	11.589025915823
1	181	23.55104848667	12.589025915823
1	189	24.55104848667	13.589025915823
1	199	25.55104848667	14.589025915823
1	236	29.55104848667	3.506710256244
